 Gaussian 16, Revision B.01,
 Gaussian 16:  ES64L-G16RevB.01 20-Dec-2017

 -------------------------------------
 # opt freq hf/3-21g geom=connectivity
 -------------------------------------

 ----------------
 styrene opt freq
 ----------------
 Symbolic Z-matrix:
 Charge =  0 Multiplicity = 1

 SCF Done:  E(RHF) =  -305.445091798     A.U. after   21 cycles
 SCF Done:  E(RHF) =  -305.456605932     A.U. after   19 cycles
 SCF Done:  E(RHF) =  -305.465259341     A.U. after   21 cycles
 SCF Done:  E(RHF) =  -305.474403731     A.U. after   20 cycles
 SCF Done:  E(RHF) =  -305.506138606     A.U. after   18 cycles
 SCF Done:  E(RHF) =  -305.588024926     A.U. after   17 cycles
 SCF Done:  E(RHF) =  -305.653289290     A.U. after   16 cycles
 SCF Done:  E(RHF) =  -305.710284065     A.U. after   16 cycles
 SCF Done:  E(RHF) =  -305.722323739     A.U. after   17 cycles
 SCF Done:  E(RHF) =  -305.732960913     A.U. after   17 cycles
 SCF Done:  E(RHF) =  -305.751841134     A.U. after   16 cycles
 SCF Done:  E(RHF) =  -305.751877158     A.U. after   15 cycles
 SCF Done:  E(RHF) =  -305.751907252     A.U. after   15 cycles
 SCF Done:  E(RHF) =  -305.751970874     A.U. after   14 cycles
 SCF Done:  E(RHF) =  -305.751964775     A.U. after   14 cycles
 SCF Done:  E(RHF) =  -305.751986919     A.U. after   13 cycles
 SCF Done:  E(RHF) =  -305.751987524     A.U. after   12 cycles
 SCF Done:  E(RHF) =  -305.751987213     A.U. after   12 cycles
 SCF Done:  E(RHF) =  -305.751987723     A.U. after   12 cycles
 Optimization completed.
    -- Stationary point found.
 Normal termination of Gaussian 16 at Sat Feb  8 10:32:27 2025.

 --------------------------------------------------------------
 #N Geom=AllCheck Guess=TCheck SCRF=Check GenChk RHF/3-21G Freq
 --------------------------------------------------------------

 Structure from the checkpoint file:  "styrene.chk"
 ----------------
 styrene opt freq
 ----------------
 Charge =  0 Multiplicity = 1

                         Standard orientation:
 ---------------------------------------------------------------------
 Center     Atomic      Atomic             Coordinates (Angstroms)
 Number     Number       Type             X           Y           Z
 ---------------------------------------------------------------------
      1          6           0        1.618629    1.123907   -0.147963
      2          6           0        2.211041   -0.125012   -0.165993
      3          6           0        1.430658   -1.254457    0.018911
      4          6           0        0.068256   -1.131762    0.217190
      5          6           0       -0.535611    0.118960    0.234952
      6          6           0        0.253321    1.243647    0.052959
      7          1           0        2.214887    2.003581   -0.289410
      8          1           0        3.267479   -0.219387   -0.319806
      9          1           0        1.883152   -2.226365    0.011840
     10          1           0       -0.528054   -2.012675    0.364077
     11          1           0       -0.199194    2.216427    0.066946
     12          6           0       -2.035183    0.256992    0.419091
     13          6           0       -2.937489   -0.177544   -0.711290
     14          1           0       -2.397678   -0.927100   -1.308075
     15          1           0       -2.379139   -0.415933    1.218558
     16          1           0       -2.303181    1.253060    0.748735
 ---------------------------------------------------------------------

 SCF Done:  E(RHF) =  -305.751987723     A.U. after    1 cycles

 The electronic state is 1-A.
 Alpha  occ. eigenvalues --  -11.21077 -11.19479 -11.18817 -11.18317 -11.18237
 Alpha  occ. eigenvalues --  -11.18173 -11.18037 -11.17973  -1.17164  -1.07771
 Alpha  occ. eigenvalues --   -1.02435  -0.98730  -0.84202  -0.83244  -0.78388
 Alpha  occ. eigenvalues --   -0.71401  -0.65156  -0.64161  -0.59971  -0.59448
 Alpha  occ. eigenvalues --   -0.56865  -0.53819  -0.50795  -0.49802  -0.49414
 Alpha  occ. eigenvalues --   -0.36489  -0.34666  -0.32464
 Alpha virt. eigenvalues --    0.09647   0.14164   0.14413   0.25399   0.29134
 Alpha virt. eigenvalues --    0.29722   0.32308   0.33634   0.34749   0.36547
 Alpha virt. eigenvalues --    0.37419   0.37799   0.44250   0.48216   0.50693

 Mulliken charges:
               1
     1  C   -0.228948
     2  C   -0.245427
     3  C   -0.228197
     4  C   -0.235586
     5  C   -0.046091
     6  C   -0.229313
     7  H    0.242796
     8  H    0.241936
     9  H    0.242408
    10  H    0.232480
    11  H    0.239570
    12  C   -0.626160
    13  C   -0.063990
    14  H    0.162370
    15  H    0.278902
    16  H    0.263250
 Sum of Mulliken charges =  -0.00000

 Dipole moment (field-independent basis, Debye):
    X=              1.9927    Y=             -0.5036    Z=              0.7434  Tot=              2.1856
 Quadrupole moment (field-independent basis, Debye-Ang):
   XX=            -56.3922   YY=            -42.6531   ZZ=            -52.5267
   XY=              1.7214   XZ=             -5.3056   YZ=             -0.4350

  Exact polarizability:  89.516   0.578  78.172  -5.264  -0.608  34.561
 Approx polarizability:  79.616   0.044  78.060  -6.115  -0.612  31.850

                      1                      2                      3
                      A                      A                      A
 Frequencies --     56.3875               165.4015               305.9396
 Red. masses --      2.9005                 4.2403                 1.5377
 Frc consts  --      0.0054                 0.0683                 0.0848
 IR Inten    --      1.7076                 1.0805                46.0753
 Raman Activ --      3.4934                 7.2706                 1.5125

                      4                      5                      6
                      A                      A                      A
 Frequencies --    331.9875               419.7424               468.0451
 Red. masses --      2.6981                 1.6373                 2.7567
 Frc consts  --      0.1752                 0.1700                 0.3558
 IR Inten    --     15.5818                21.7530                 0.0183
 Raman Activ --      1.5807                 1.8646                 0.0385

                      7                      8                      9
                      A                      A                      A
 Frequencies --    546.4553               642.9925               712.3133
 Red. masses --      3.9723                 3.1729                 6.2620
 Frc consts  --      0.6989                 0.7729                 1.8720
 IR Inten    --      5.4911                27.6977                 0.0404
 Raman Activ --      5.3891                 1.6476                 4.5008

                     10                     11                     12
                      A                      A                      A
 Frequencies --    762.9541               810.5074               847.5638
 Red. masses --      2.1571                 1.5890                 3.2734
 Frc consts  --      0.7398                 0.6150                 1.3855
 IR Inten    --     12.9001                55.4977                14.9243
 Raman Activ --      1.3587                 0.4730                13.3246

                     13                     14                     15
                      A                      A                      A
 Frequencies --    890.4277               989.8378              1004.1423
 Red. masses --      1.8431                 1.2599                 3.5061
 Frc consts  --      0.8610                 0.7273                 2.0829
 IR Inten    --     21.8992                 0.1062                 2.9608
 Raman Activ --      2.0215                 4.4255                 7.3817

                     16                     17                     18
                      A                      A                      A
 Frequencies --   1080.2149              1107.4741              1141.5962
 Red. masses --      1.4311                 4.4008                 2.8350
 Frc consts  --      0.9839                 3.1801                 2.1769
 IR Inten    --      0.2237                 0.3732                 1.8991
 Raman Activ --      1.5049                34.5336                 0.1473

                     19                     20                     21
                      A                      A                      A
 Frequencies --   1155.4525              1179.0292              1188.2273
 Red. masses --      1.4030                 1.6972                 1.4416
 Frc consts  --      1.1036                 1.3901                 1.1992
 IR Inten    --      0.0249                 0.2383                 0.0317
 Raman Activ --      0.0115                 2.2203                 0.2847

                     22                     23                     24
                      A                      A                      A
 Frequencies --   1214.2928              1279.6058              1299.3957
 Red. masses --      2.2072                 1.4496                 2.5952
 Frc consts  --      1.9175                 1.3985                 2.5817
 IR Inten    --      7.9352                 4.8558                22.4154
 Raman Activ --      1.9237                10.7956                10.5454

                     25                     26                     27
                      A                      A                      A
 Frequencies --   1315.7167              1331.9961              1359.4755
 Red. masses --      1.6273                 1.1859                 1.3669
 Frc consts  --      1.6598                 1.2397                 1.4884
 IR Inten    --     27.1652                 0.2637                 1.5091
 Raman Activ --      5.7863                 5.3311                 2.0431

                     28                     29                     30
                      A                      A                      A
 Frequencies --   1454.6559              1520.9855              1582.1483
 Red. masses --      1.2736                 1.2769                 1.1052
 Frc consts  --      1.5878                 1.7405                 1.6300
 IR Inten    --      3.5772                 2.0923                28.0586
 Raman Activ --     12.5427                 2.3371                16.4448

                     31                     32                     33
                      A                      A                      A
 Frequencies --   1628.1521              1671.0269              1753.7317
 Red. masses --      1.8622                 1.9172                 4.5569
 Frc consts  --      2.9085                 3.1542                 8.2574
 IR Inten    --     12.9986                17.7132                 2.8145
 Raman Activ --      0.4403                 0.9944                 9.7520

                     34                     35                     36
                      A                      A                      A
 Frequencies --   1774.5977              3068.3521              3089.8868
 Red. masses --      4.6279                 1.0814                 1.0708
 Frc consts  --      8.5868                 5.9988                 6.0232
 IR Inten    --      5.1198                65.9115                11.4654
 Raman Activ --     23.1652                77.1507                87.8387

                     37                     38                     39
                      A                      A                      A
 Frequencies --   3248.6251              3338.0540              3346.9583
 Red. masses --      1.0848                 1.0883                 1.0875
 Frc consts  --      6.7456                 7.1448                 7.1778
 IR Inten    --     11.2637                 8.0934                 3.4608
 Raman Activ --     64.0758                45.1719                47.6419

                     40                     41                     42
                      A                      A                      A
 Frequencies --   3358.8475              3368.7132              3384.1854
 Red. masses --      1.0905                 1.0939                 1.0988
 Frc consts  --      7.2487                 7.3143                 7.4146
 IR Inten    --      5.4880                28.8202                13.8838
 Raman Activ --    103.0173                27.1576               228.1957

 - Thermochemistry -
 -------------------
 Temperature   298.150 Kelvin.  Pressure   1.00000 Atm.
 Atom     1 has atomic number  6 and mass  12.00000

 Molecular mass:   104.06260 amu.
 Principal axes and moments of inertia in atomic units:
                           1         2         3
     Eigenvalues --   372.659261152.636321424.54249
           X            0.99993   0.00227  -0.01130
           Y           -0.00220   0.99997   0.00673
           Z            0.01132  -0.00671   0.99991
 This molecule is an asymmetric top.
 Rotational symmetry number  1.
 Rotational temperatures (Kelvin)      0.23242     0.07514     0.06080
 Rotational constants (GHZ):           4.84287     1.56575     1.26689
 Zero-point vibrational energy     366033.9 (Joules/Mol)
                                   87.48421 (Kcal/Mol)
 Warning -- explicit consideration of   7 degrees of freedom as
           vibrations may cause significant error
 Vibrational temperatures:     81.13   237.98   440.18   477.66   603.92
          (Kelvin)            673.41   786.23   925.12  1024.86  1097.72
                             1166.14  1219.46  1281.13  1424.16  1444.74
                             1554.19  1593.41  1642.50  1662.44  1696.36
                             1709.59  1747.10  1841.07  1869.54  1893.02
                             1916.45  1955.98  2092.93  2188.36  2276.36
                             2342.55  2404.24  2523.23  2553.25  4414.67
                             4445.66  4674.05  4802.72  4815.53  4832.63
                             4846.83  4869.09

 Zero-point correction=                           0.139415 (Hartree/Particle)
 Thermal correction to Energy=                    0.146038
 Thermal correction to Enthalpy=                  0.146982
 Thermal correction to Gibbs Free Energy=         0.108122
 Sum of electronic and zero-point Energies=           -305.612573
 Sum of electronic and thermal Energies=              -305.605950
 Sum of electronic and thermal Enthalpies=            -305.605006
 Sum of electronic and thermal Free Energies=         -305.643866

                     E (Thermal)             CV                S
                      KCal/Mol        Cal/Mol-Kelvin    Cal/Mol-Kelvin
 Total                   91.640             24.679             81.788
 Electronic               0.000              0.000              0.000
 Translational            0.889              2.981             39.837
 Rotational               0.889              2.981             27.906
 Vibrational             89.863             18.717             14.046
 Vibration     1          0.596              1.975              4.580
 Vibration     2          0.624              1.885              2.487
 Vibration     3          0.696              1.662              1.384
 Vibration     4          0.714              1.612              1.250
 Vibration     5          0.782              1.427              0.893
 Vibration     6          0.825              1.321              0.743
 Vibration     7          0.902              1.147              0.552

 Optimization completed.
    -- Stationary point found.
 Normal termination of Gaussian 16 at Sat Feb  8 10:32:33 2025.
